<?xml version="1.0" encoding="UTF-8"?>

<!-- generated on 03/15/21 13:39:42 by Eclipse SUMO GUI Version 1.8.0
<configuration xmlns:xsi="http://www.w3.org/2001/XMLSchema-instance" xsi:noNamespaceSchemaLocation="http://sumo.dlr.de/xsd/sumoConfiguration.xsd">

    <input>
        <net-file value="C:\Users\jwj\Desktop\sumo-win64-1.8.0\sumo-1.8.0\docs\examples\sumo\angled_roadside_parking\net.net.xml"/>
        <route-files value="C:\Users\jwj\Desktop\sumo-win64-1.8.0\sumo-1.8.0\docs\examples\sumo\angled_roadside_parking\input_routes.rou.xml"/>
        <additional-files value="C:\Users\jwj\Desktop\sumo-win64-1.8.0\sumo-1.8.0\docs\examples\sumo\angled_roadside_parking\input_additional.add.xml"/>
    </input>

    <output>
        <write-license value="true"/>
        <fcd-output value="C:\Users\jwj\Desktop\sumo-win64-1.8.0\sumo-1.8.0\docs\examples\sumo\angled_roadside_parking\fcd.xml"/>
        <fcd-output.signals value="true"/>
    </output>

    <processing>
        <default.speeddev value="0"/>
    </processing>

    <report>
        <duration-log.disable value="true"/>
        <no-step-log value="true"/>
    </report>

</configuration>
-->

<fcd-export xmlns:xsi="http://www.w3.org/2001/XMLSchema-instance" xsi:noNamespaceSchemaLocation="http://sumo.dlr.de/xsd/fcd_file.xsd">
</fcd-export>
