<?xml version="1.0" encoding="UTF-8"?>

<!-- generated on 03/16/21 11:41:32 by Eclipse SUMO GUI Version 1.8.0
<configuration xmlns:xsi="http://www.w3.org/2001/XMLSchema-instance" xsi:noNamespaceSchemaLocation="http://sumo.dlr.de/xsd/sumoConfiguration.xsd">

    <input>
        <net-file value="C:\Users\jwj\Desktop\sumo-win64-1.8.0\sumo-1.8.0\file\highway\G0211.net.xml"/>
        <route-files value="C:\Users\jwj\Desktop\sumo-win64-1.8.0\sumo-1.8.0\file\highway\G0211.rou.xml"/>
    </input>

    <output>
        <tripinfo-output value="tripinfo.xml"/>
    </output>

    <time>
        <begin value="54000"/>
        <end value="54900"/>
        <step-length value="0.01"/>
    </time>

    <processing>
        <time-to-teleport value="-1"/>
    </processing>

    <traci_server>
        <remote-port value="50769"/>
    </traci_server>

    <gui_only>
        <tracker-interval value="0.01"/>
    </gui_only>

</configuration>
-->

<tripinfos xmlns:xsi="http://www.w3.org/2001/XMLSchema-instance" xsi:noNamespaceSchemaLocation="http://sumo.dlr.de/xsd/tripinfo_file.xsd">
</tripinfos>
